# -*- lammps -*-
#
# This is the first example in a series on polymers.  The differ from
# the previous 'LJ' series primarily as follow:

# Polymers have finite size, and so cannot be treated as an infinite
# array.  This means that we'll have to construct the initial
# position/velocity table explicitly.

# For this model, we have 25 polymers initially in 5x5 array as seen
# in the YZ plane.  Each polymer has 10 repeating units each of two
# types (A & B), with all A on one side and all B on the other.

# There is one bond between adjacent units (19 for each polymer), totaling 475.

500 atoms
475 bonds
0 angles
0 dihedrals
0 impropers

# We specify 2 atom types (A & B), and only 1 bond type.

2 atom types
1 bond types
0 angle types
0 dihedral types
0 improper types

-15 15 xlo xhi
-15 15 ylo yhi
-15 15 zlo zhi

# In this model, masses are the same

Masses

1 1
2 1

# Below are the initialization assignments.

# Atoms: initial positions of repeating units.  Note that "Atoms" is a
# LAMMPS keyword for whatever base unit we're using, and cannot be
# redefined!

# Note the format of each line:

# [unique unit number (must run from 1 to total given above)]
#                       [molecule number (1-25)] [unit type (1 or 2)] [XYZ coordinates]

# Velocities: initial velocities.  If the 'Velocities' section is
# omitted, LAMMPS sets all velocities initially to zero.

# Bonds: specifies which units are bonded to each other.

# Format:

# [unique bond number (1-475)] [bond type (1 is all there is)] [first unit] [second unit]

Atoms

1	1	1	-7.85	-12	-12
2	1	1	-6.85	-12	-12
3	1	1	-5.85	-12	-12
4	1	1	-4.85	-12	-12
5	1	1	-3.85	-12	-12
6	1	1	-2.85	-12	-12
7	1	1	-1.85	-12	-12
8	1	1	-0.85	-12	-12
9	1	1	0.15	-12	-12
10	1	1	1.15	-12	-12
11	1	2	2.15	-12	-12
12	1	2	3.15	-12	-12
13	1	2	4.15	-12	-12
14	1	2	5.15	-12	-12
15	1	2	6.15	-12	-12
16	1	2	7.15	-12	-12
17	1	2	8.15	-12	-12
18	1	2	9.15	-12	-12
19	1	2	10.15	-12	-12
20	1	2	11.15	-12	-12
21	2	1	-7.7	-6	-12
22	2	1	-6.7	-6	-12
23	2	1	-5.7	-6	-12
24	2	1	-4.7	-6	-12
25	2	1	-3.7	-6	-12
26	2	1	-2.7	-6	-12
27	2	1	-1.7	-6	-12
28	2	1	-0.7	-6	-12
29	2	1	0.3	-6	-12
30	2	1	1.3	-6	-12
31	2	2	2.3	-6	-12
32	2	2	3.3	-6	-12
33	2	2	4.3	-6	-12
34	2	2	5.3	-6	-12
35	2	2	6.3	-6	-12
36	2	2	7.3	-6	-12
37	2	2	8.3	-6	-12
38	2	2	9.3	-6	-12
39	2	2	10.3	-6	-12
40	2	2	11.3	-6	-12
41	3	1	-8.15	0	-12
42	3	1	-7.15	0	-12
43	3	1	-6.15	0	-12
44	3	1	-5.15	0	-12
45	3	1	-4.15	0	-12
46	3	1	-3.15	0	-12
47	3	1	-2.15	0	-12
48	3	1	-1.15	0	-12
49	3	1	-0.15	0	-12
50	3	1	0.85	0	-12
51	3	2	1.85	0	-12
52	3	2	2.85	0	-12
53	3	2	3.85	0	-12
54	3	2	4.85	0	-12
55	3	2	5.85	0	-12
56	3	2	6.85	0	-12
57	3	2	7.85	0	-12
58	3	2	8.85	0	-12
59	3	2	9.85	0	-12
60	3	2	10.85	0	-12
61	4	1	-11.25	6	-12
62	4	1	-10.25	6	-12
63	4	1	-9.25	6	-12
64	4	1	-8.25	6	-12
65	4	1	-7.25	6	-12
66	4	1	-6.25	6	-12
67	4	1	-5.25	6	-12
68	4	1	-4.25	6	-12
69	4	1	-3.25	6	-12
70	4	1	-2.25	6	-12
71	4	2	-1.25	6	-12
72	4	2	-0.25	6	-12
73	4	2	0.75	6	-12
74	4	2	1.75	6	-12
75	4	2	2.75	6	-12
76	4	2	3.75	6	-12
77	4	2	4.75	6	-12
78	4	2	5.75	6	-12
79	4	2	6.75	6	-12
80	4	2	7.75	6	-12
81	5	1	-7.35	12	-12
82	5	1	-6.35	12	-12
83	5	1	-5.35	12	-12
84	5	1	-4.35	12	-12
85	5	1	-3.35	12	-12
86	5	1	-2.35	12	-12
87	5	1	-1.35	12	-12
88	5	1	-0.35	12	-12
89	5	1	0.65	12	-12
90	5	1	1.65	12	-12
91	5	2	2.65	12	-12
92	5	2	3.65	12	-12
93	5	2	4.65	12	-12
94	5	2	5.65	12	-12
95	5	2	6.65	12	-12
96	5	2	7.65	12	-12
97	5	2	8.65	12	-12
98	5	2	9.65	12	-12
99	5	2	10.65	12	-12
100	5	2	11.65	12	-12
101	6	1	-10.25	-12	-6
102	6	1	-9.25	-12	-6
103	6	1	-8.25	-12	-6
104	6	1	-7.25	-12	-6
105	6	1	-6.25	-12	-6
106	6	1	-5.25	-12	-6
107	6	1	-4.25	-12	-6
108	6	1	-3.25	-12	-6
109	6	1	-2.25	-12	-6
110	6	1	-1.25	-12	-6
111	6	2	-0.25	-12	-6
112	6	2	0.75	-12	-6
113	6	2	1.75	-12	-6
114	6	2	2.75	-12	-6
115	6	2	3.75	-12	-6
116	6	2	4.75	-12	-6
117	6	2	5.75	-12	-6
118	6	2	6.75	-12	-6
119	6	2	7.75	-12	-6
120	6	2	8.75	-12	-6
121	7	1	-7.7	-6	-6
122	7	1	-6.7	-6	-6
123	7	1	-5.7	-6	-6
124	7	1	-4.7	-6	-6
125	7	1	-3.7	-6	-6
126	7	1	-2.7	-6	-6
127	7	1	-1.7	-6	-6
128	7	1	-0.7	-6	-6
129	7	1	0.3	-6	-6
130	7	1	1.3	-6	-6
131	7	2	2.3	-6	-6
132	7	2	3.3	-6	-6
133	7	2	4.3	-6	-6
134	7	2	5.3	-6	-6
135	7	2	6.3	-6	-6
136	7	2	7.3	-6	-6
137	7	2	8.3	-6	-6
138	7	2	9.3	-6	-6
139	7	2	10.3	-6	-6
140	7	2	11.3	-6	-6
141	8	1	-7.4	0	-6
142	8	1	-6.4	0	-6
143	8	1	-5.4	0	-6
144	8	1	-4.4	0	-6
145	8	1	-3.4	0	-6
146	8	1	-2.4	0	-6
147	8	1	-1.4	0	-6
148	8	1	-0.4	0	-6
149	8	1	0.6	0	-6
150	8	1	1.6	0	-6
151	8	2	2.6	0	-6
152	8	2	3.6	0	-6
153	8	2	4.6	0	-6
154	8	2	5.6	0	-6
155	8	2	6.6	0	-6
156	8	2	7.6	0	-6
157	8	2	8.6	0	-6
158	8	2	9.6	0	-6
159	8	2	10.6	0	-6
160	8	2	11.6	0	-6
161	9	1	-9.55	6	-6
162	9	1	-8.55	6	-6
163	9	1	-7.55	6	-6
164	9	1	-6.55	6	-6
165	9	1	-5.55	6	-6
166	9	1	-4.55	6	-6
167	9	1	-3.55	6	-6
168	9	1	-2.55	6	-6
169	9	1	-1.55	6	-6
170	9	1	-0.55	6	-6
171	9	2	0.45	6	-6
172	9	2	1.45	6	-6
173	9	2	2.45	6	-6
174	9	2	3.45	6	-6
175	9	2	4.45	6	-6
176	9	2	5.45	6	-6
177	9	2	6.45	6	-6
178	9	2	7.45	6	-6
179	9	2	8.45	6	-6
180	9	2	9.45	6	-6
181	10	1	-10.95	12	-6
182	10	1	-9.95	12	-6
183	10	1	-8.95	12	-6
184	10	1	-7.95	12	-6
185	10	1	-6.95	12	-6
186	10	1	-5.95	12	-6
187	10	1	-4.95	12	-6
188	10	1	-3.95	12	-6
189	10	1	-2.95	12	-6
190	10	1	-1.95	12	-6
191	10	2	-0.95	12	-6
192	10	2	0.05	12	-6
193	10	2	1.05	12	-6
194	10	2	2.05	12	-6
195	10	2	3.05	12	-6
196	10	2	4.05	12	-6
197	10	2	5.05	12	-6
198	10	2	6.05	12	-6
199	10	2	7.05	12	-6
200	10	2	8.05	12	-6
201	11	1	-8.9	-12	0
202	11	1	-7.9	-12	0
203	11	1	-6.9	-12	0
204	11	1	-5.9	-12	0
205	11	1	-4.9	-12	0
206	11	1	-3.9	-12	0
207	11	1	-2.9	-12	0
208	11	1	-1.9	-12	0
209	11	1	-0.9	-12	0
210	11	1	0.1	-12	0
211	11	2	1.1	-12	0
212	11	2	2.1	-12	0
213	11	2	3.1	-12	0
214	11	2	4.1	-12	0
215	11	2	5.1	-12	0
216	11	2	6.1	-12	0
217	11	2	7.1	-12	0
218	11	2	8.1	-12	0
219	11	2	9.1	-12	0
220	11	2	10.1	-12	0
221	12	1	-10.65	-6	0
222	12	1	-9.65	-6	0
223	12	1	-8.65	-6	0
224	12	1	-7.65	-6	0
225	12	1	-6.65	-6	0
226	12	1	-5.65	-6	0
227	12	1	-4.65	-6	0
228	12	1	-3.65	-6	0
229	12	1	-2.65	-6	0
230	12	1	-1.65	-6	0
231	12	2	-0.65	-6	0
232	12	2	0.35	-6	0
233	12	2	1.35	-6	0
234	12	2	2.35	-6	0
235	12	2	3.35	-6	0
236	12	2	4.35	-6	0
237	12	2	5.35	-6	0
238	12	2	6.35	-6	0
239	12	2	7.35	-6	0
240	12	2	8.35	-6	0
241	13	1	-7.5	0	0
242	13	1	-6.5	0	0
243	13	1	-5.5	0	0
244	13	1	-4.5	0	0
245	13	1	-3.5	0	0
246	13	1	-2.5	0	0
247	13	1	-1.5	0	0
248	13	1	-0.5	0	0
249	13	1	0.5	0	0
250	13	1	1.5	0	0
251	13	2	2.5	0	0
252	13	2	3.5	0	0
253	13	2	4.5	0	0
254	13	2	5.5	0	0
255	13	2	6.5	0	0
256	13	2	7.5	0	0
257	13	2	8.5	0	0
258	13	2	9.5	0	0
259	13	2	10.5	0	0
260	13	2	11.5	0	0
261	14	1	-9.05	6	0
262	14	1	-8.05	6	0
263	14	1	-7.05	6	0
264	14	1	-6.05	6	0
265	14	1	-5.05	6	0
266	14	1	-4.05	6	0
267	14	1	-3.05	6	0
268	14	1	-2.05	6	0
269	14	1	-1.05	6	0
270	14	1	-0.05	6	0
271	14	2	0.95	6	0
272	14	2	1.95	6	0
273	14	2	2.95	6	0
274	14	2	3.95	6	0
275	14	2	4.95	6	0
276	14	2	5.95	6	0
277	14	2	6.95	6	0
278	14	2	7.95	6	0
279	14	2	8.95	6	0
280	14	2	9.95	6	0
281	15	1	-8.85	12	0
282	15	1	-7.85	12	0
283	15	1	-6.85	12	0
284	15	1	-5.85	12	0
285	15	1	-4.85	12	0
286	15	1	-3.85	12	0
287	15	1	-2.85	12	0
288	15	1	-1.85	12	0
289	15	1	-0.85	12	0
290	15	1	0.15	12	0
291	15	2	1.15	12	0
292	15	2	2.15	12	0
293	15	2	3.15	12	0
294	15	2	4.15	12	0
295	15	2	5.15	12	0
296	15	2	6.15	12	0
297	15	2	7.15	12	0
298	15	2	8.15	12	0
299	15	2	9.15	12	0
300	15	2	10.15	12	0
301	16	1	-10.7	-12	6
302	16	1	-9.7	-12	6
303	16	1	-8.7	-12	6
304	16	1	-7.7	-12	6
305	16	1	-6.7	-12	6
306	16	1	-5.7	-12	6
307	16	1	-4.7	-12	6
308	16	1	-3.7	-12	6
309	16	1	-2.7	-12	6
310	16	1	-1.7	-12	6
311	16	2	-0.7	-12	6
312	16	2	0.3	-12	6
313	16	2	1.3	-12	6
314	16	2	2.3	-12	6
315	16	2	3.3	-12	6
316	16	2	4.3	-12	6
317	16	2	5.3	-12	6
318	16	2	6.3	-12	6
319	16	2	7.3	-12	6
320	16	2	8.3	-12	6
321	17	1	-10	-6	6
322	17	1	-9	-6	6
323	17	1	-8	-6	6
324	17	1	-7	-6	6
325	17	1	-6	-6	6
326	17	1	-5	-6	6
327	17	1	-4	-6	6
328	17	1	-3	-6	6
329	17	1	-2	-6	6
330	17	1	-1	-6	6
331	17	2	1.11022e-16	-6	6
332	17	2	1	-6	6
333	17	2	2	-6	6
334	17	2	3	-6	6
335	17	2	4	-6	6
336	17	2	5	-6	6
337	17	2	6	-6	6
338	17	2	7	-6	6
339	17	2	8	-6	6
340	17	2	9	-6	6
341	18	1	-10.7	0	6
342	18	1	-9.7	0	6
343	18	1	-8.7	0	6
344	18	1	-7.7	0	6
345	18	1	-6.7	0	6
346	18	1	-5.7	0	6
347	18	1	-4.7	0	6
348	18	1	-3.7	0	6
349	18	1	-2.7	0	6
350	18	1	-1.7	0	6
351	18	2	-0.7	0	6
352	18	2	0.3	0	6
353	18	2	1.3	0	6
354	18	2	2.3	0	6
355	18	2	3.3	0	6
356	18	2	4.3	0	6
357	18	2	5.3	0	6
358	18	2	6.3	0	6
359	18	2	7.3	0	6
360	18	2	8.3	0	6
361	19	1	-8.4	6	6
362	19	1	-7.4	6	6
363	19	1	-6.4	6	6
364	19	1	-5.4	6	6
365	19	1	-4.4	6	6
366	19	1	-3.4	6	6
367	19	1	-2.4	6	6
368	19	1	-1.4	6	6
369	19	1	-0.4	6	6
370	19	1	0.6	6	6
371	19	2	1.6	6	6
372	19	2	2.6	6	6
373	19	2	3.6	6	6
374	19	2	4.6	6	6
375	19	2	5.6	6	6
376	19	2	6.6	6	6
377	19	2	7.6	6	6
378	19	2	8.6	6	6
379	19	2	9.6	6	6
380	19	2	10.6	6	6
381	20	1	-10.2	12	6
382	20	1	-9.2	12	6
383	20	1	-8.2	12	6
384	20	1	-7.2	12	6
385	20	1	-6.2	12	6
386	20	1	-5.2	12	6
387	20	1	-4.2	12	6
388	20	1	-3.2	12	6
389	20	1	-2.2	12	6
390	20	1	-1.2	12	6
391	20	2	-0.2	12	6
392	20	2	0.8	12	6
393	20	2	1.8	12	6
394	20	2	2.8	12	6
395	20	2	3.8	12	6
396	20	2	4.8	12	6
397	20	2	5.8	12	6
398	20	2	6.8	12	6
399	20	2	7.8	12	6
400	20	2	8.8	12	6
401	21	1	-11.45	-12	12
402	21	1	-10.45	-12	12
403	21	1	-9.45	-12	12
404	21	1	-8.45	-12	12
405	21	1	-7.45	-12	12
406	21	1	-6.45	-12	12
407	21	1	-5.45	-12	12
408	21	1	-4.45	-12	12
409	21	1	-3.45	-12	12
410	21	1	-2.45	-12	12
411	21	2	-1.45	-12	12
412	21	2	-0.45	-12	12
413	21	2	0.55	-12	12
414	21	2	1.55	-12	12
415	21	2	2.55	-12	12
416	21	2	3.55	-12	12
417	21	2	4.55	-12	12
418	21	2	5.55	-12	12
419	21	2	6.55	-12	12
420	21	2	7.55	-12	12
421	22	1	-8.6	-6	12
422	22	1	-7.6	-6	12
423	22	1	-6.6	-6	12
424	22	1	-5.6	-6	12
425	22	1	-4.6	-6	12
426	22	1	-3.6	-6	12
427	22	1	-2.6	-6	12
428	22	1	-1.6	-6	12
429	22	1	-0.6	-6	12
430	22	1	0.4	-6	12
431	22	2	1.4	-6	12
432	22	2	2.4	-6	12
433	22	2	3.4	-6	12
434	22	2	4.4	-6	12
435	22	2	5.4	-6	12
436	22	2	6.4	-6	12
437	22	2	7.4	-6	12
438	22	2	8.4	-6	12
439	22	2	9.4	-6	12
440	22	2	10.4	-6	12
441	23	1	-8.65	0	12
442	23	1	-7.65	0	12
443	23	1	-6.65	0	12
444	23	1	-5.65	0	12
445	23	1	-4.65	0	12
446	23	1	-3.65	0	12
447	23	1	-2.65	0	12
448	23	1	-1.65	0	12
449	23	1	-0.65	0	12
450	23	1	0.35	0	12
451	23	2	1.35	0	12
452	23	2	2.35	0	12
453	23	2	3.35	0	12
454	23	2	4.35	0	12
455	23	2	5.35	0	12
456	23	2	6.35	0	12
457	23	2	7.35	0	12
458	23	2	8.35	0	12
459	23	2	9.35	0	12
460	23	2	10.35	0	12
461	24	1	-10.55	6	12
462	24	1	-9.55	6	12
463	24	1	-8.55	6	12
464	24	1	-7.55	6	12
465	24	1	-6.55	6	12
466	24	1	-5.55	6	12
467	24	1	-4.55	6	12
468	24	1	-3.55	6	12
469	24	1	-2.55	6	12
470	24	1	-1.55	6	12
471	24	2	-0.55	6	12
472	24	2	0.45	6	12
473	24	2	1.45	6	12
474	24	2	2.45	6	12
475	24	2	3.45	6	12
476	24	2	4.45	6	12
477	24	2	5.45	6	12
478	24	2	6.45	6	12
479	24	2	7.45	6	12
480	24	2	8.45	6	12
481	25	1	-7.9	12	12
482	25	1	-6.9	12	12
483	25	1	-5.9	12	12
484	25	1	-4.9	12	12
485	25	1	-3.9	12	12
486	25	1	-2.9	12	12
487	25	1	-1.9	12	12
488	25	1	-0.9	12	12
489	25	1	0.1	12	12
490	25	1	1.1	12	12
491	25	2	2.1	12	12
492	25	2	3.1	12	12
493	25	2	4.1	12	12
494	25	2	5.1	12	12
495	25	2	6.1	12	12
496	25	2	7.1	12	12
497	25	2	8.1	12	12
498	25	2	9.1	12	12
499	25	2	10.1	12	12
500	25	2	11.1	12	12

Velocities

1	0	0	0	
2	0	0	0	
3	0	0	0	
4	0	0	0	
5	0	0	0	
6	0	0	0	
7	0	0	0	
8	0	0	0	
9	0	0	0	
10	0	0	0	
11	0	0	0	
12	0	0	0	
13	0	0	0	
14	0	0	0	
15	0	0	0	
16	0	0	0	
17	0	0	0	
18	0	0	0	
19	0	0	0	
20	0	0	0	
21	0	0	0	
22	0	0	0	
23	0	0	0	
24	0	0	0	
25	0	0	0	
26	0	0	0	
27	0	0	0	
28	0	0	0	
29	0	0	0	
30	0	0	0	
31	0	0	0	
32	0	0	0	
33	0	0	0	
34	0	0	0	
35	0	0	0	
36	0	0	0	
37	0	0	0	
38	0	0	0	
39	0	0	0	
40	0	0	0	
41	0	0	0	
42	0	0	0	
43	0	0	0	
44	0	0	0	
45	0	0	0	
46	0	0	0	
47	0	0	0	
48	0	0	0	
49	0	0	0	
50	0	0	0	
51	0	0	0	
52	0	0	0	
53	0	0	0	
54	0	0	0	
55	0	0	0	
56	0	0	0	
57	0	0	0	
58	0	0	0	
59	0	0	0	
60	0	0	0	
61	0	0	0	
62	0	0	0	
63	0	0	0	
64	0	0	0	
65	0	0	0	
66	0	0	0	
67	0	0	0	
68	0	0	0	
69	0	0	0	
70	0	0	0	
71	0	0	0	
72	0	0	0	
73	0	0	0	
74	0	0	0	
75	0	0	0	
76	0	0	0	
77	0	0	0	
78	0	0	0	
79	0	0	0	
80	0	0	0	
81	0	0	0	
82	0	0	0	
83	0	0	0	
84	0	0	0	
85	0	0	0	
86	0	0	0	
87	0	0	0	
88	0	0	0	
89	0	0	0	
90	0	0	0	
91	0	0	0	
92	0	0	0	
93	0	0	0	
94	0	0	0	
95	0	0	0	
96	0	0	0	
97	0	0	0	
98	0	0	0	
99	0	0	0	
100	0	0	0	
101	0	0	0	
102	0	0	0	
103	0	0	0	
104	0	0	0	
105	0	0	0	
106	0	0	0	
107	0	0	0	
108	0	0	0	
109	0	0	0	
110	0	0	0	
111	0	0	0	
112	0	0	0	
113	0	0	0	
114	0	0	0	
115	0	0	0	
116	0	0	0	
117	0	0	0	
118	0	0	0	
119	0	0	0	
120	0	0	0	
121	0	0	0	
122	0	0	0	
123	0	0	0	
124	0	0	0	
125	0	0	0	
126	0	0	0	
127	0	0	0	
128	0	0	0	
129	0	0	0	
130	0	0	0	
131	0	0	0	
132	0	0	0	
133	0	0	0	
134	0	0	0	
135	0	0	0	
136	0	0	0	
137	0	0	0	
138	0	0	0	
139	0	0	0	
140	0	0	0	
141	0	0	0	
142	0	0	0	
143	0	0	0	
144	0	0	0	
145	0	0	0	
146	0	0	0	
147	0	0	0	
148	0	0	0	
149	0	0	0	
150	0	0	0	
151	0	0	0	
152	0	0	0	
153	0	0	0	
154	0	0	0	
155	0	0	0	
156	0	0	0	
157	0	0	0	
158	0	0	0	
159	0	0	0	
160	0	0	0	
161	0	0	0	
162	0	0	0	
163	0	0	0	
164	0	0	0	
165	0	0	0	
166	0	0	0	
167	0	0	0	
168	0	0	0	
169	0	0	0	
170	0	0	0	
171	0	0	0	
172	0	0	0	
173	0	0	0	
174	0	0	0	
175	0	0	0	
176	0	0	0	
177	0	0	0	
178	0	0	0	
179	0	0	0	
180	0	0	0	
181	0	0	0	
182	0	0	0	
183	0	0	0	
184	0	0	0	
185	0	0	0	
186	0	0	0	
187	0	0	0	
188	0	0	0	
189	0	0	0	
190	0	0	0	
191	0	0	0	
192	0	0	0	
193	0	0	0	
194	0	0	0	
195	0	0	0	
196	0	0	0	
197	0	0	0	
198	0	0	0	
199	0	0	0	
200	0	0	0	
201	0	0	0	
202	0	0	0	
203	0	0	0	
204	0	0	0	
205	0	0	0	
206	0	0	0	
207	0	0	0	
208	0	0	0	
209	0	0	0	
210	0	0	0	
211	0	0	0	
212	0	0	0	
213	0	0	0	
214	0	0	0	
215	0	0	0	
216	0	0	0	
217	0	0	0	
218	0	0	0	
219	0	0	0	
220	0	0	0	
221	0	0	0	
222	0	0	0	
223	0	0	0	
224	0	0	0	
225	0	0	0	
226	0	0	0	
227	0	0	0	
228	0	0	0	
229	0	0	0	
230	0	0	0	
231	0	0	0	
232	0	0	0	
233	0	0	0	
234	0	0	0	
235	0	0	0	
236	0	0	0	
237	0	0	0	
238	0	0	0	
239	0	0	0	
240	0	0	0	
241	0	0	0	
242	0	0	0	
243	0	0	0	
244	0	0	0	
245	0	0	0	
246	0	0	0	
247	0	0	0	
248	0	0	0	
249	0	0	0	
250	0	0	0	
251	0	0	0	
252	0	0	0	
253	0	0	0	
254	0	0	0	
255	0	0	0	
256	0	0	0	
257	0	0	0	
258	0	0	0	
259	0	0	0	
260	0	0	0	
261	0	0	0	
262	0	0	0	
263	0	0	0	
264	0	0	0	
265	0	0	0	
266	0	0	0	
267	0	0	0	
268	0	0	0	
269	0	0	0	
270	0	0	0	
271	0	0	0	
272	0	0	0	
273	0	0	0	
274	0	0	0	
275	0	0	0	
276	0	0	0	
277	0	0	0	
278	0	0	0	
279	0	0	0	
280	0	0	0	
281	0	0	0	
282	0	0	0	
283	0	0	0	
284	0	0	0	
285	0	0	0	
286	0	0	0	
287	0	0	0	
288	0	0	0	
289	0	0	0	
290	0	0	0	
291	0	0	0	
292	0	0	0	
293	0	0	0	
294	0	0	0	
295	0	0	0	
296	0	0	0	
297	0	0	0	
298	0	0	0	
299	0	0	0	
300	0	0	0	
301	0	0	0	
302	0	0	0	
303	0	0	0	
304	0	0	0	
305	0	0	0	
306	0	0	0	
307	0	0	0	
308	0	0	0	
309	0	0	0	
310	0	0	0	
311	0	0	0	
312	0	0	0	
313	0	0	0	
314	0	0	0	
315	0	0	0	
316	0	0	0	
317	0	0	0	
318	0	0	0	
319	0	0	0	
320	0	0	0	
321	0	0	0	
322	0	0	0	
323	0	0	0	
324	0	0	0	
325	0	0	0	
326	0	0	0	
327	0	0	0	
328	0	0	0	
329	0	0	0	
330	0	0	0	
331	0	0	0	
332	0	0	0	
333	0	0	0	
334	0	0	0	
335	0	0	0	
336	0	0	0	
337	0	0	0	
338	0	0	0	
339	0	0	0	
340	0	0	0	
341	0	0	0	
342	0	0	0	
343	0	0	0	
344	0	0	0	
345	0	0	0	
346	0	0	0	
347	0	0	0	
348	0	0	0	
349	0	0	0	
350	0	0	0	
351	0	0	0	
352	0	0	0	
353	0	0	0	
354	0	0	0	
355	0	0	0	
356	0	0	0	
357	0	0	0	
358	0	0	0	
359	0	0	0	
360	0	0	0	
361	0	0	0	
362	0	0	0	
363	0	0	0	
364	0	0	0	
365	0	0	0	
366	0	0	0	
367	0	0	0	
368	0	0	0	
369	0	0	0	
370	0	0	0	
371	0	0	0	
372	0	0	0	
373	0	0	0	
374	0	0	0	
375	0	0	0	
376	0	0	0	
377	0	0	0	
378	0	0	0	
379	0	0	0	
380	0	0	0	
381	0	0	0	
382	0	0	0	
383	0	0	0	
384	0	0	0	
385	0	0	0	
386	0	0	0	
387	0	0	0	
388	0	0	0	
389	0	0	0	
390	0	0	0	
391	0	0	0	
392	0	0	0	
393	0	0	0	
394	0	0	0	
395	0	0	0	
396	0	0	0	
397	0	0	0	
398	0	0	0	
399	0	0	0	
400	0	0	0	
401	0	0	0	
402	0	0	0	
403	0	0	0	
404	0	0	0	
405	0	0	0	
406	0	0	0	
407	0	0	0	
408	0	0	0	
409	0	0	0	
410	0	0	0	
411	0	0	0	
412	0	0	0	
413	0	0	0	
414	0	0	0	
415	0	0	0	
416	0	0	0	
417	0	0	0	
418	0	0	0	
419	0	0	0	
420	0	0	0	
421	0	0	0	
422	0	0	0	
423	0	0	0	
424	0	0	0	
425	0	0	0	
426	0	0	0	
427	0	0	0	
428	0	0	0	
429	0	0	0	
430	0	0	0	
431	0	0	0	
432	0	0	0	
433	0	0	0	
434	0	0	0	
435	0	0	0	
436	0	0	0	
437	0	0	0	
438	0	0	0	
439	0	0	0	
440	0	0	0	
441	0	0	0	
442	0	0	0	
443	0	0	0	
444	0	0	0	
445	0	0	0	
446	0	0	0	
447	0	0	0	
448	0	0	0	
449	0	0	0	
450	0	0	0	
451	0	0	0	
452	0	0	0	
453	0	0	0	
454	0	0	0	
455	0	0	0	
456	0	0	0	
457	0	0	0	
458	0	0	0	
459	0	0	0	
460	0	0	0	
461	0	0	0	
462	0	0	0	
463	0	0	0	
464	0	0	0	
465	0	0	0	
466	0	0	0	
467	0	0	0	
468	0	0	0	
469	0	0	0	
470	0	0	0	
471	0	0	0	
472	0	0	0	
473	0	0	0	
474	0	0	0	
475	0	0	0	
476	0	0	0	
477	0	0	0	
478	0	0	0	
479	0	0	0	
480	0	0	0	
481	0	0	0	
482	0	0	0	
483	0	0	0	
484	0	0	0	
485	0	0	0	
486	0	0	0	
487	0	0	0	
488	0	0	0	
489	0	0	0	
490	0	0	0	
491	0	0	0	
492	0	0	0	
493	0	0	0	
494	0	0	0	
495	0	0	0	
496	0	0	0	
497	0	0	0	
498	0	0	0	
499	0	0	0	
500	0	0	0	

Bonds

1	1	1	2
2	1	2	3
3	1	3	4
4	1	4	5
5	1	5	6
6	1	6	7
7	1	7	8
8	1	8	9
9	1	9	10
10	1	10	11
11	1	11	12
12	1	12	13
13	1	13	14
14	1	14	15
15	1	15	16
16	1	16	17
17	1	17	18
18	1	18	19
19	1	19	20
20	1	21	22
21	1	22	23
22	1	23	24
23	1	24	25
24	1	25	26
25	1	26	27
26	1	27	28
27	1	28	29
28	1	29	30
29	1	30	31
30	1	31	32
31	1	32	33
32	1	33	34
33	1	34	35
34	1	35	36
35	1	36	37
36	1	37	38
37	1	38	39
38	1	39	40
39	1	41	42
40	1	42	43
41	1	43	44
42	1	44	45
43	1	45	46
44	1	46	47
45	1	47	48
46	1	48	49
47	1	49	50
48	1	50	51
49	1	51	52
50	1	52	53
51	1	53	54
52	1	54	55
53	1	55	56
54	1	56	57
55	1	57	58
56	1	58	59
57	1	59	60
58	1	61	62
59	1	62	63
60	1	63	64
61	1	64	65
62	1	65	66
63	1	66	67
64	1	67	68
65	1	68	69
66	1	69	70
67	1	70	71
68	1	71	72
69	1	72	73
70	1	73	74
71	1	74	75
72	1	75	76
73	1	76	77
74	1	77	78
75	1	78	79
76	1	79	80
77	1	81	82
78	1	82	83
79	1	83	84
80	1	84	85
81	1	85	86
82	1	86	87
83	1	87	88
84	1	88	89
85	1	89	90
86	1	90	91
87	1	91	92
88	1	92	93
89	1	93	94
90	1	94	95
91	1	95	96
92	1	96	97
93	1	97	98
94	1	98	99
95	1	99	100
96	1	101	102
97	1	102	103
98	1	103	104
99	1	104	105
100	1	105	106
101	1	106	107
102	1	107	108
103	1	108	109
104	1	109	110
105	1	110	111
106	1	111	112
107	1	112	113
108	1	113	114
109	1	114	115
110	1	115	116
111	1	116	117
112	1	117	118
113	1	118	119
114	1	119	120
115	1	121	122
116	1	122	123
117	1	123	124
118	1	124	125
119	1	125	126
120	1	126	127
121	1	127	128
122	1	128	129
123	1	129	130
124	1	130	131
125	1	131	132
126	1	132	133
127	1	133	134
128	1	134	135
129	1	135	136
130	1	136	137
131	1	137	138
132	1	138	139
133	1	139	140
134	1	141	142
135	1	142	143
136	1	143	144
137	1	144	145
138	1	145	146
139	1	146	147
140	1	147	148
141	1	148	149
142	1	149	150
143	1	150	151
144	1	151	152
145	1	152	153
146	1	153	154
147	1	154	155
148	1	155	156
149	1	156	157
150	1	157	158
151	1	158	159
152	1	159	160
153	1	161	162
154	1	162	163
155	1	163	164
156	1	164	165
157	1	165	166
158	1	166	167
159	1	167	168
160	1	168	169
161	1	169	170
162	1	170	171
163	1	171	172
164	1	172	173
165	1	173	174
166	1	174	175
167	1	175	176
168	1	176	177
169	1	177	178
170	1	178	179
171	1	179	180
172	1	181	182
173	1	182	183
174	1	183	184
175	1	184	185
176	1	185	186
177	1	186	187
178	1	187	188
179	1	188	189
180	1	189	190
181	1	190	191
182	1	191	192
183	1	192	193
184	1	193	194
185	1	194	195
186	1	195	196
187	1	196	197
188	1	197	198
189	1	198	199
190	1	199	200
191	1	201	202
192	1	202	203
193	1	203	204
194	1	204	205
195	1	205	206
196	1	206	207
197	1	207	208
198	1	208	209
199	1	209	210
200	1	210	211
201	1	211	212
202	1	212	213
203	1	213	214
204	1	214	215
205	1	215	216
206	1	216	217
207	1	217	218
208	1	218	219
209	1	219	220
210	1	221	222
211	1	222	223
212	1	223	224
213	1	224	225
214	1	225	226
215	1	226	227
216	1	227	228
217	1	228	229
218	1	229	230
219	1	230	231
220	1	231	232
221	1	232	233
222	1	233	234
223	1	234	235
224	1	235	236
225	1	236	237
226	1	237	238
227	1	238	239
228	1	239	240
229	1	241	242
230	1	242	243
231	1	243	244
232	1	244	245
233	1	245	246
234	1	246	247
235	1	247	248
236	1	248	249
237	1	249	250
238	1	250	251
239	1	251	252
240	1	252	253
241	1	253	254
242	1	254	255
243	1	255	256
244	1	256	257
245	1	257	258
246	1	258	259
247	1	259	260
248	1	261	262
249	1	262	263
250	1	263	264
251	1	264	265
252	1	265	266
253	1	266	267
254	1	267	268
255	1	268	269
256	1	269	270
257	1	270	271
258	1	271	272
259	1	272	273
260	1	273	274
261	1	274	275
262	1	275	276
263	1	276	277
264	1	277	278
265	1	278	279
266	1	279	280
267	1	281	282
268	1	282	283
269	1	283	284
270	1	284	285
271	1	285	286
272	1	286	287
273	1	287	288
274	1	288	289
275	1	289	290
276	1	290	291
277	1	291	292
278	1	292	293
279	1	293	294
280	1	294	295
281	1	295	296
282	1	296	297
283	1	297	298
284	1	298	299
285	1	299	300
286	1	301	302
287	1	302	303
288	1	303	304
289	1	304	305
290	1	305	306
291	1	306	307
292	1	307	308
293	1	308	309
294	1	309	310
295	1	310	311
296	1	311	312
297	1	312	313
298	1	313	314
299	1	314	315
300	1	315	316
301	1	316	317
302	1	317	318
303	1	318	319
304	1	319	320
305	1	321	322
306	1	322	323
307	1	323	324
308	1	324	325
309	1	325	326
310	1	326	327
311	1	327	328
312	1	328	329
313	1	329	330
314	1	330	331
315	1	331	332
316	1	332	333
317	1	333	334
318	1	334	335
319	1	335	336
320	1	336	337
321	1	337	338
322	1	338	339
323	1	339	340
324	1	341	342
325	1	342	343
326	1	343	344
327	1	344	345
328	1	345	346
329	1	346	347
330	1	347	348
331	1	348	349
332	1	349	350
333	1	350	351
334	1	351	352
335	1	352	353
336	1	353	354
337	1	354	355
338	1	355	356
339	1	356	357
340	1	357	358
341	1	358	359
342	1	359	360
343	1	361	362
344	1	362	363
345	1	363	364
346	1	364	365
347	1	365	366
348	1	366	367
349	1	367	368
350	1	368	369
351	1	369	370
352	1	370	371
353	1	371	372
354	1	372	373
355	1	373	374
356	1	374	375
357	1	375	376
358	1	376	377
359	1	377	378
360	1	378	379
361	1	379	380
362	1	381	382
363	1	382	383
364	1	383	384
365	1	384	385
366	1	385	386
367	1	386	387
368	1	387	388
369	1	388	389
370	1	389	390
371	1	390	391
372	1	391	392
373	1	392	393
374	1	393	394
375	1	394	395
376	1	395	396
377	1	396	397
378	1	397	398
379	1	398	399
380	1	399	400
381	1	401	402
382	1	402	403
383	1	403	404
384	1	404	405
385	1	405	406
386	1	406	407
387	1	407	408
388	1	408	409
389	1	409	410
390	1	410	411
391	1	411	412
392	1	412	413
393	1	413	414
394	1	414	415
395	1	415	416
396	1	416	417
397	1	417	418
398	1	418	419
399	1	419	420
400	1	421	422
401	1	422	423
402	1	423	424
403	1	424	425
404	1	425	426
405	1	426	427
406	1	427	428
407	1	428	429
408	1	429	430
409	1	430	431
410	1	431	432
411	1	432	433
412	1	433	434
413	1	434	435
414	1	435	436
415	1	436	437
416	1	437	438
417	1	438	439
418	1	439	440
419	1	441	442
420	1	442	443
421	1	443	444
422	1	444	445
423	1	445	446
424	1	446	447
425	1	447	448
426	1	448	449
427	1	449	450
428	1	450	451
429	1	451	452
430	1	452	453
431	1	453	454
432	1	454	455
433	1	455	456
434	1	456	457
435	1	457	458
436	1	458	459
437	1	459	460
438	1	461	462
439	1	462	463
440	1	463	464
441	1	464	465
442	1	465	466
443	1	466	467
444	1	467	468
445	1	468	469
446	1	469	470
447	1	470	471
448	1	471	472
449	1	472	473
450	1	473	474
451	1	474	475
452	1	475	476
453	1	476	477
454	1	477	478
455	1	478	479
456	1	479	480
457	1	481	482
458	1	482	483
459	1	483	484
460	1	484	485
461	1	485	486
462	1	486	487
463	1	487	488
464	1	488	489
465	1	489	490
466	1	490	491
467	1	491	492
468	1	492	493
469	1	493	494
470	1	494	495
471	1	495	496
472	1	496	497
473	1	497	498
474	1	498	499
475	1	499	500
