LAMMPS chain data file

# polymer length:  200
# 9 polymers
# simulation volume: 27000

1800 atoms
1791 bonds
0 angles
0 dihedrals
0 impropers

2 atom types
1 bond types
0 angle types
0 dihedral types
0 improper types

-15 15 xlo xhi
-15 15 ylo yhi
-15 15 zlo zhi

Masses

1 1
2 1


Atoms

1	1	1	-9.785	-10	-10
2	1	1	-9.685	-10	-10
3	1	1	-9.585	-10	-10
4	1	1	-9.485	-10	-10
5	1	1	-9.385	-10	-10
6	1	1	-9.285	-10	-10
7	1	1	-9.185	-10	-10
8	1	1	-9.085	-10	-10
9	1	1	-8.985	-10	-10
10	1	1	-8.885	-10	-10
11	1	1	-8.785	-10	-10
12	1	1	-8.685	-10	-10
13	1	1	-8.585	-10	-10
14	1	1	-8.485	-10	-10
15	1	1	-8.385	-10	-10
16	1	1	-8.285	-10	-10
17	1	1	-8.185	-10	-10
18	1	1	-8.085	-10	-10
19	1	1	-7.985	-10	-10
20	1	1	-7.885	-10	-10
21	1	1	-7.785	-10	-10
22	1	1	-7.685	-10	-10
23	1	1	-7.585	-10	-10
24	1	1	-7.485	-10	-10
25	1	1	-7.385	-10	-10
26	1	1	-7.285	-10	-10
27	1	1	-7.185	-10	-10
28	1	1	-7.085	-10	-10
29	1	1	-6.985	-10	-10
30	1	1	-6.885	-10	-10
31	1	1	-6.785	-10	-10
32	1	1	-6.685	-10	-10
33	1	1	-6.585	-10	-10
34	1	1	-6.485	-10	-10
35	1	1	-6.385	-10	-10
36	1	1	-6.285	-10	-10
37	1	1	-6.185	-10	-10
38	1	1	-6.085	-10	-10
39	1	1	-5.985	-10	-10
40	1	1	-5.885	-10	-10
41	1	1	-5.785	-10	-10
42	1	1	-5.685	-10	-10
43	1	1	-5.585	-10	-10
44	1	1	-5.485	-10	-10
45	1	1	-5.385	-10	-10
46	1	1	-5.285	-10	-10
47	1	1	-5.185	-10	-10
48	1	1	-5.085	-10	-10
49	1	1	-4.985	-10	-10
50	1	1	-4.885	-10	-10
51	1	1	-4.785	-10	-10
52	1	1	-4.685	-10	-10
53	1	1	-4.585	-10	-10
54	1	1	-4.485	-10	-10
55	1	1	-4.385	-10	-10
56	1	1	-4.285	-10	-10
57	1	1	-4.185	-10	-10
58	1	1	-4.085	-10	-10
59	1	1	-3.985	-10	-10
60	1	1	-3.885	-10	-10
61	1	1	-3.785	-10	-10
62	1	1	-3.685	-10	-10
63	1	1	-3.585	-10	-10
64	1	1	-3.485	-10	-10
65	1	1	-3.385	-10	-10
66	1	1	-3.285	-10	-10
67	1	1	-3.185	-10	-10
68	1	1	-3.085	-10	-10
69	1	1	-2.985	-10	-10
70	1	1	-2.885	-10	-10
71	1	1	-2.785	-10	-10
72	1	1	-2.685	-10	-10
73	1	1	-2.585	-10	-10
74	1	1	-2.485	-10	-10
75	1	1	-2.385	-10	-10
76	1	1	-2.285	-10	-10
77	1	1	-2.185	-10	-10
78	1	1	-2.085	-10	-10
79	1	1	-1.985	-10	-10
80	1	1	-1.885	-10	-10
81	1	1	-1.785	-10	-10
82	1	1	-1.685	-10	-10
83	1	1	-1.585	-10	-10
84	1	1	-1.485	-10	-10
85	1	1	-1.385	-10	-10
86	1	1	-1.285	-10	-10
87	1	1	-1.185	-10	-10
88	1	1	-1.085	-10	-10
89	1	1	-0.985	-10	-10
90	1	1	-0.885	-10	-10
91	1	1	-0.785	-10	-10
92	1	1	-0.685	-10	-10
93	1	1	-0.585	-10	-10
94	1	1	-0.485	-10	-10
95	1	1	-0.385	-10	-10
96	1	1	-0.285	-10	-10
97	1	1	-0.185	-10	-10
98	1	1	-0.085	-10	-10
99	1	1	0.015	-10	-10
100	1	1	0.115	-10	-10
101	1	2	0.215	-10	-10
102	1	2	0.315	-10	-10
103	1	2	0.415	-10	-10
104	1	2	0.515	-10	-10
105	1	2	0.615	-10	-10
106	1	2	0.715	-10	-10
107	1	2	0.815	-10	-10
108	1	2	0.915	-10	-10
109	1	2	1.015	-10	-10
110	1	2	1.115	-10	-10
111	1	2	1.215	-10	-10
112	1	2	1.315	-10	-10
113	1	2	1.415	-10	-10
114	1	2	1.515	-10	-10
115	1	2	1.615	-10	-10
116	1	2	1.715	-10	-10
117	1	2	1.815	-10	-10
118	1	2	1.915	-10	-10
119	1	2	2.015	-10	-10
120	1	2	2.115	-10	-10
121	1	2	2.215	-10	-10
122	1	2	2.315	-10	-10
123	1	2	2.415	-10	-10
124	1	2	2.515	-10	-10
125	1	2	2.615	-10	-10
126	1	2	2.715	-10	-10
127	1	2	2.815	-10	-10
128	1	2	2.915	-10	-10
129	1	2	3.015	-10	-10
130	1	2	3.115	-10	-10
131	1	2	3.215	-10	-10
132	1	2	3.315	-10	-10
133	1	2	3.415	-10	-10
134	1	2	3.515	-10	-10
135	1	2	3.615	-10	-10
136	1	2	3.715	-10	-10
137	1	2	3.815	-10	-10
138	1	2	3.915	-10	-10
139	1	2	4.015	-10	-10
140	1	2	4.115	-10	-10
141	1	2	4.215	-10	-10
142	1	2	4.315	-10	-10
143	1	2	4.415	-10	-10
144	1	2	4.515	-10	-10
145	1	2	4.615	-10	-10
146	1	2	4.715	-10	-10
147	1	2	4.815	-10	-10
148	1	2	4.915	-10	-10
149	1	2	5.015	-10	-10
150	1	2	5.115	-10	-10
151	1	2	5.215	-10	-10
152	1	2	5.315	-10	-10
153	1	2	5.415	-10	-10
154	1	2	5.515	-10	-10
155	1	2	5.615	-10	-10
156	1	2	5.715	-10	-10
157	1	2	5.815	-10	-10
158	1	2	5.915	-10	-10
159	1	2	6.015	-10	-10
160	1	2	6.115	-10	-10
161	1	2	6.215	-10	-10
162	1	2	6.315	-10	-10
163	1	2	6.415	-10	-10
164	1	2	6.515	-10	-10
165	1	2	6.615	-10	-10
166	1	2	6.715	-10	-10
167	1	2	6.815	-10	-10
168	1	2	6.915	-10	-10
169	1	2	7.015	-10	-10
170	1	2	7.115	-10	-10
171	1	2	7.215	-10	-10
172	1	2	7.315	-10	-10
173	1	2	7.415	-10	-10
174	1	2	7.515	-10	-10
175	1	2	7.615	-10	-10
176	1	2	7.715	-10	-10
177	1	2	7.815	-10	-10
178	1	2	7.915	-10	-10
179	1	2	8.015	-10	-10
180	1	2	8.115	-10	-10
181	1	2	8.215	-10	-10
182	1	2	8.315	-10	-10
183	1	2	8.415	-10	-10
184	1	2	8.515	-10	-10
185	1	2	8.615	-10	-10
186	1	2	8.715	-10	-10
187	1	2	8.815	-10	-10
188	1	2	8.915	-10	-10
189	1	2	9.015	-10	-10
190	1	2	9.115	-10	-10
191	1	2	9.215	-10	-10
192	1	2	9.315	-10	-10
193	1	2	9.415	-10	-10
194	1	2	9.515	-10	-10
195	1	2	9.615	-10	-10
196	1	2	9.715	-10	-10
197	1	2	9.815	-10	-10
198	1	2	9.915	-10	-10
199	1	2	10.015	-10	-10
200	1	2	10.115	-10	-10
201	2	1	-9.77	0	-10
202	2	1	-9.67	0	-10
203	2	1	-9.57	0	-10
204	2	1	-9.47	0	-10
205	2	1	-9.37	0	-10
206	2	1	-9.27	0	-10
207	2	1	-9.17	0	-10
208	2	1	-9.07	0	-10
209	2	1	-8.97	0	-10
210	2	1	-8.87	0	-10
211	2	1	-8.77	0	-10
212	2	1	-8.67	0	-10
213	2	1	-8.57	0	-10
214	2	1	-8.47	0	-10
215	2	1	-8.37	0	-10
216	2	1	-8.27	0	-10
217	2	1	-8.17	0	-10
218	2	1	-8.07	0	-10
219	2	1	-7.97	0	-10
220	2	1	-7.87	0	-10
221	2	1	-7.77	0	-10
222	2	1	-7.67	0	-10
223	2	1	-7.57	0	-10
224	2	1	-7.47	0	-10
225	2	1	-7.37	0	-10
226	2	1	-7.27	0	-10
227	2	1	-7.17	0	-10
228	2	1	-7.07	0	-10
229	2	1	-6.97	0	-10
230	2	1	-6.87	0	-10
231	2	1	-6.77	0	-10
232	2	1	-6.67	0	-10
233	2	1	-6.57	0	-10
234	2	1	-6.47	0	-10
235	2	1	-6.37	0	-10
236	2	1	-6.27	0	-10
237	2	1	-6.17	0	-10
238	2	1	-6.07	0	-10
239	2	1	-5.97	0	-10
240	2	1	-5.87	0	-10
241	2	1	-5.77	0	-10
242	2	1	-5.67	0	-10
243	2	1	-5.57	0	-10
244	2	1	-5.47	0	-10
245	2	1	-5.37	0	-10
246	2	1	-5.27	0	-10
247	2	1	-5.17	0	-10
248	2	1	-5.07	0	-10
249	2	1	-4.97	0	-10
250	2	1	-4.87	0	-10
251	2	1	-4.77	0	-10
252	2	1	-4.67	0	-10
253	2	1	-4.57	0	-10
254	2	1	-4.47	0	-10
255	2	1	-4.37	0	-10
256	2	1	-4.27	0	-10
257	2	1	-4.17	0	-10
258	2	1	-4.07	0	-10
259	2	1	-3.97	0	-10
260	2	1	-3.87	0	-10
261	2	1	-3.77	0	-10
262	2	1	-3.67	0	-10
263	2	1	-3.57	0	-10
264	2	1	-3.47	0	-10
265	2	1	-3.37	0	-10
266	2	1	-3.27	0	-10
267	2	1	-3.17	0	-10
268	2	1	-3.07	0	-10
269	2	1	-2.97	0	-10
270	2	1	-2.87	0	-10
271	2	1	-2.77	0	-10
272	2	1	-2.67	0	-10
273	2	1	-2.57	0	-10
274	2	1	-2.47	0	-10
275	2	1	-2.37	0	-10
276	2	1	-2.27	0	-10
277	2	1	-2.17	0	-10
278	2	1	-2.07	0	-10
279	2	1	-1.97	0	-10
280	2	1	-1.87	0	-10
281	2	1	-1.77	0	-10
282	2	1	-1.67	0	-10
283	2	1	-1.57	0	-10
284	2	1	-1.47	0	-10
285	2	1	-1.37	0	-10
286	2	1	-1.27	0	-10
287	2	1	-1.17	0	-10
288	2	1	-1.07	0	-10
289	2	1	-0.97	0	-10
290	2	1	-0.87	0	-10
291	2	1	-0.77	0	-10
292	2	1	-0.67	0	-10
293	2	1	-0.57	0	-10
294	2	1	-0.47	0	-10
295	2	1	-0.37	0	-10
296	2	1	-0.27	0	-10
297	2	1	-0.17	0	-10
298	2	1	-0.07	0	-10
299	2	1	0.03	0	-10
300	2	1	0.13	0	-10
301	2	2	0.23	0	-10
302	2	2	0.33	0	-10
303	2	2	0.43	0	-10
304	2	2	0.53	0	-10
305	2	2	0.63	0	-10
306	2	2	0.73	0	-10
307	2	2	0.83	0	-10
308	2	2	0.93	0	-10
309	2	2	1.03	0	-10
310	2	2	1.13	0	-10
311	2	2	1.23	0	-10
312	2	2	1.33	0	-10
313	2	2	1.43	0	-10
314	2	2	1.53	0	-10
315	2	2	1.63	0	-10
316	2	2	1.73	0	-10
317	2	2	1.83	0	-10
318	2	2	1.93	0	-10
319	2	2	2.03	0	-10
320	2	2	2.13	0	-10
321	2	2	2.23	0	-10
322	2	2	2.33	0	-10
323	2	2	2.43	0	-10
324	2	2	2.53	0	-10
325	2	2	2.63	0	-10
326	2	2	2.73	0	-10
327	2	2	2.83	0	-10
328	2	2	2.93	0	-10
329	2	2	3.03	0	-10
330	2	2	3.13	0	-10
331	2	2	3.23	0	-10
332	2	2	3.33	0	-10
333	2	2	3.43	0	-10
334	2	2	3.53	0	-10
335	2	2	3.63	0	-10
336	2	2	3.73	0	-10
337	2	2	3.83	0	-10
338	2	2	3.93	0	-10
339	2	2	4.03	0	-10
340	2	2	4.13	0	-10
341	2	2	4.23	0	-10
342	2	2	4.33	0	-10
343	2	2	4.43	0	-10
344	2	2	4.53	0	-10
345	2	2	4.63	0	-10
346	2	2	4.73	0	-10
347	2	2	4.83	0	-10
348	2	2	4.93	0	-10
349	2	2	5.03	0	-10
350	2	2	5.13	0	-10
351	2	2	5.23	0	-10
352	2	2	5.33	0	-10
353	2	2	5.43	0	-10
354	2	2	5.53	0	-10
355	2	2	5.63	0	-10
356	2	2	5.73	0	-10
357	2	2	5.83	0	-10
358	2	2	5.93	0	-10
359	2	2	6.03	0	-10
360	2	2	6.13	0	-10
361	2	2	6.23	0	-10
362	2	2	6.33	0	-10
363	2	2	6.43	0	-10
364	2	2	6.53	0	-10
365	2	2	6.63	0	-10
366	2	2	6.73	0	-10
367	2	2	6.83	0	-10
368	2	2	6.93	0	-10
369	2	2	7.03	0	-10
370	2	2	7.13	0	-10
371	2	2	7.23	0	-10
372	2	2	7.33	0	-10
373	2	2	7.43	0	-10
374	2	2	7.53	0	-10
375	2	2	7.63	0	-10
376	2	2	7.73	0	-10
377	2	2	7.83	0	-10
378	2	2	7.93	0	-10
379	2	2	8.03	0	-10
380	2	2	8.13	0	-10
381	2	2	8.23	0	-10
382	2	2	8.33	0	-10
383	2	2	8.43	0	-10
384	2	2	8.53	0	-10
385	2	2	8.63	0	-10
386	2	2	8.73	0	-10
387	2	2	8.83	0	-10
388	2	2	8.93	0	-10
389	2	2	9.03	0	-10
390	2	2	9.13	0	-10
391	2	2	9.23	0	-10
392	2	2	9.33	0	-10
393	2	2	9.43	0	-10
394	2	2	9.53	0	-10
395	2	2	9.63	0	-10
396	2	2	9.73	0	-10
397	2	2	9.83	0	-10
398	2	2	9.93	0	-10
399	2	2	10.03	0	-10
400	2	2	10.13	0	-10
401	3	1	-9.815	10	-10
402	3	1	-9.715	10	-10
403	3	1	-9.615	10	-10
404	3	1	-9.515	10	-10
405	3	1	-9.415	10	-10
406	3	1	-9.315	10	-10
407	3	1	-9.215	10	-10
408	3	1	-9.115	10	-10
409	3	1	-9.015	10	-10
410	3	1	-8.915	10	-10
411	3	1	-8.815	10	-10
412	3	1	-8.715	10	-10
413	3	1	-8.615	10	-10
414	3	1	-8.515	10	-10
415	3	1	-8.415	10	-10
416	3	1	-8.315	10	-10
417	3	1	-8.215	10	-10
418	3	1	-8.115	10	-10
419	3	1	-8.015	10	-10
420	3	1	-7.915	10	-10
421	3	1	-7.815	10	-10
422	3	1	-7.715	10	-10
423	3	1	-7.615	10	-10
424	3	1	-7.515	10	-10
425	3	1	-7.415	10	-10
426	3	1	-7.315	10	-10
427	3	1	-7.215	10	-10
428	3	1	-7.115	10	-10
429	3	1	-7.015	10	-10
430	3	1	-6.915	10	-10
431	3	1	-6.815	10	-10
432	3	1	-6.715	10	-10
433	3	1	-6.615	10	-10
434	3	1	-6.515	10	-10
435	3	1	-6.415	10	-10
436	3	1	-6.315	10	-10
437	3	1	-6.215	10	-10
438	3	1	-6.115	10	-10
439	3	1	-6.015	10	-10
440	3	1	-5.915	10	-10
441	3	1	-5.815	10	-10
442	3	1	-5.715	10	-10
443	3	1	-5.615	10	-10
444	3	1	-5.515	10	-10
445	3	1	-5.415	10	-10
446	3	1	-5.315	10	-10
447	3	1	-5.215	10	-10
448	3	1	-5.115	10	-10
449	3	1	-5.015	10	-10
450	3	1	-4.915	10	-10
451	3	1	-4.815	10	-10
452	3	1	-4.715	10	-10
453	3	1	-4.615	10	-10
454	3	1	-4.515	10	-10
455	3	1	-4.415	10	-10
456	3	1	-4.315	10	-10
457	3	1	-4.215	10	-10
458	3	1	-4.115	10	-10
459	3	1	-4.015	10	-10
460	3	1	-3.915	10	-10
461	3	1	-3.815	10	-10
462	3	1	-3.715	10	-10
463	3	1	-3.615	10	-10
464	3	1	-3.515	10	-10
465	3	1	-3.415	10	-10
466	3	1	-3.315	10	-10
467	3	1	-3.215	10	-10
468	3	1	-3.115	10	-10
469	3	1	-3.015	10	-10
470	3	1	-2.915	10	-10
471	3	1	-2.815	10	-10
472	3	1	-2.715	10	-10
473	3	1	-2.615	10	-10
474	3	1	-2.515	10	-10
475	3	1	-2.415	10	-10
476	3	1	-2.315	10	-10
477	3	1	-2.215	10	-10
478	3	1	-2.115	10	-10
479	3	1	-2.015	10	-10
480	3	1	-1.915	10	-10
481	3	1	-1.815	10	-10
482	3	1	-1.715	10	-10
483	3	1	-1.615	10	-10
484	3	1	-1.515	10	-10
485	3	1	-1.415	10	-10
486	3	1	-1.315	10	-10
487	3	1	-1.215	10	-10
488	3	1	-1.115	10	-10
489	3	1	-1.015	10	-10
490	3	1	-0.915	10	-10
491	3	1	-0.815	10	-10
492	3	1	-0.715	10	-10
493	3	1	-0.615	10	-10
494	3	1	-0.515	10	-10
495	3	1	-0.415	10	-10
496	3	1	-0.315	10	-10
497	3	1	-0.215	10	-10
498	3	1	-0.115	10	-10
499	3	1	-0.015	10	-10
500	3	1	0.085	10	-10
501	3	2	0.185	10	-10
502	3	2	0.285	10	-10
503	3	2	0.385	10	-10
504	3	2	0.485	10	-10
505	3	2	0.585	10	-10
506	3	2	0.685	10	-10
507	3	2	0.785	10	-10
508	3	2	0.885	10	-10
509	3	2	0.985	10	-10
510	3	2	1.085	10	-10
511	3	2	1.185	10	-10
512	3	2	1.285	10	-10
513	3	2	1.385	10	-10
514	3	2	1.485	10	-10
515	3	2	1.585	10	-10
516	3	2	1.685	10	-10
517	3	2	1.785	10	-10
518	3	2	1.885	10	-10
519	3	2	1.985	10	-10
520	3	2	2.085	10	-10
521	3	2	2.185	10	-10
522	3	2	2.285	10	-10
523	3	2	2.385	10	-10
524	3	2	2.485	10	-10
525	3	2	2.585	10	-10
526	3	2	2.685	10	-10
527	3	2	2.785	10	-10
528	3	2	2.885	10	-10
529	3	2	2.985	10	-10
530	3	2	3.085	10	-10
531	3	2	3.185	10	-10
532	3	2	3.285	10	-10
533	3	2	3.385	10	-10
534	3	2	3.485	10	-10
535	3	2	3.585	10	-10
536	3	2	3.685	10	-10
537	3	2	3.785	10	-10
538	3	2	3.885	10	-10
539	3	2	3.985	10	-10
540	3	2	4.085	10	-10
541	3	2	4.185	10	-10
542	3	2	4.285	10	-10
543	3	2	4.385	10	-10
544	3	2	4.485	10	-10
545	3	2	4.585	10	-10
546	3	2	4.685	10	-10
547	3	2	4.785	10	-10
548	3	2	4.885	10	-10
549	3	2	4.985	10	-10
550	3	2	5.085	10	-10
551	3	2	5.185	10	-10
552	3	2	5.285	10	-10
553	3	2	5.385	10	-10
554	3	2	5.485	10	-10
555	3	2	5.585	10	-10
556	3	2	5.685	10	-10
557	3	2	5.785	10	-10
558	3	2	5.885	10	-10
559	3	2	5.985	10	-10
560	3	2	6.085	10	-10
561	3	2	6.185	10	-10
562	3	2	6.285	10	-10
563	3	2	6.385	10	-10
564	3	2	6.485	10	-10
565	3	2	6.585	10	-10
566	3	2	6.685	10	-10
567	3	2	6.785	10	-10
568	3	2	6.885	10	-10
569	3	2	6.985	10	-10
570	3	2	7.085	10	-10
571	3	2	7.185	10	-10
572	3	2	7.285	10	-10
573	3	2	7.385	10	-10
574	3	2	7.485	10	-10
575	3	2	7.585	10	-10
576	3	2	7.685	10	-10
577	3	2	7.785	10	-10
578	3	2	7.885	10	-10
579	3	2	7.985	10	-10
580	3	2	8.085	10	-10
581	3	2	8.185	10	-10
582	3	2	8.285	10	-10
583	3	2	8.385	10	-10
584	3	2	8.485	10	-10
585	3	2	8.585	10	-10
586	3	2	8.685	10	-10
587	3	2	8.785	10	-10
588	3	2	8.885	10	-10
589	3	2	8.985	10	-10
590	3	2	9.085	10	-10
591	3	2	9.185	10	-10
592	3	2	9.285	10	-10
593	3	2	9.385	10	-10
594	3	2	9.485	10	-10
595	3	2	9.585	10	-10
596	3	2	9.685	10	-10
597	3	2	9.785	10	-10
598	3	2	9.885	10	-10
599	3	2	9.985	10	-10
600	3	2	10.085	10	-10
601	4	1	-10.125	-10	0
602	4	1	-10.025	-10	0
603	4	1	-9.925	-10	0
604	4	1	-9.825	-10	0
605	4	1	-9.725	-10	0
606	4	1	-9.625	-10	0
607	4	1	-9.525	-10	0
608	4	1	-9.425	-10	0
609	4	1	-9.325	-10	0
610	4	1	-9.225	-10	0
611	4	1	-9.125	-10	0
612	4	1	-9.025	-10	0
613	4	1	-8.925	-10	0
614	4	1	-8.825	-10	0
615	4	1	-8.725	-10	0
616	4	1	-8.625	-10	0
617	4	1	-8.525	-10	0
618	4	1	-8.425	-10	0
619	4	1	-8.325	-10	0
620	4	1	-8.225	-10	0
621	4	1	-8.125	-10	0
622	4	1	-8.025	-10	0
623	4	1	-7.925	-10	0
624	4	1	-7.825	-10	0
625	4	1	-7.725	-10	0
626	4	1	-7.625	-10	0
627	4	1	-7.525	-10	0
628	4	1	-7.425	-10	0
629	4	1	-7.325	-10	0
630	4	1	-7.225	-10	0
631	4	1	-7.125	-10	0
632	4	1	-7.025	-10	0
633	4	1	-6.925	-10	0
634	4	1	-6.825	-10	0
635	4	1	-6.725	-10	0
636	4	1	-6.625	-10	0
637	4	1	-6.525	-10	0
638	4	1	-6.425	-10	0
639	4	1	-6.325	-10	0
640	4	1	-6.225	-10	0
641	4	1	-6.125	-10	0
642	4	1	-6.025	-10	0
643	4	1	-5.925	-10	0
644	4	1	-5.825	-10	0
645	4	1	-5.725	-10	0
646	4	1	-5.625	-10	0
647	4	1	-5.525	-10	0
648	4	1	-5.425	-10	0
649	4	1	-5.325	-10	0
650	4	1	-5.225	-10	0
651	4	1	-5.125	-10	0
652	4	1	-5.025	-10	0
653	4	1	-4.925	-10	0
654	4	1	-4.825	-10	0
655	4	1	-4.725	-10	0
656	4	1	-4.625	-10	0
657	4	1	-4.525	-10	0
658	4	1	-4.425	-10	0
659	4	1	-4.325	-10	0
660	4	1	-4.225	-10	0
661	4	1	-4.125	-10	0
662	4	1	-4.025	-10	0
663	4	1	-3.925	-10	0
664	4	1	-3.825	-10	0
665	4	1	-3.725	-10	0
666	4	1	-3.625	-10	0
667	4	1	-3.525	-10	0
668	4	1	-3.425	-10	0
669	4	1	-3.325	-10	0
670	4	1	-3.225	-10	0
671	4	1	-3.125	-10	0
672	4	1	-3.025	-10	0
673	4	1	-2.925	-10	0
674	4	1	-2.825	-10	0
675	4	1	-2.725	-10	0
676	4	1	-2.625	-10	0
677	4	1	-2.525	-10	0
678	4	1	-2.425	-10	0
679	4	1	-2.325	-10	0
680	4	1	-2.225	-10	0
681	4	1	-2.125	-10	0
682	4	1	-2.025	-10	0
683	4	1	-1.925	-10	0
684	4	1	-1.825	-10	0
685	4	1	-1.725	-10	0
686	4	1	-1.625	-10	0
687	4	1	-1.525	-10	0
688	4	1	-1.425	-10	0
689	4	1	-1.325	-10	0
690	4	1	-1.225	-10	0
691	4	1	-1.125	-10	0
692	4	1	-1.025	-10	0
693	4	1	-0.925	-10	0
694	4	1	-0.825	-10	0
695	4	1	-0.725	-10	0
696	4	1	-0.625	-10	0
697	4	1	-0.525	-10	0
698	4	1	-0.425	-10	0
699	4	1	-0.325	-10	0
700	4	1	-0.225	-10	0
701	4	2	-0.125	-10	0
702	4	2	-0.025	-10	0
703	4	2	0.075	-10	0
704	4	2	0.175	-10	0
705	4	2	0.275	-10	0
706	4	2	0.375	-10	0
707	4	2	0.475	-10	0
708	4	2	0.575	-10	0
709	4	2	0.675	-10	0
710	4	2	0.775	-10	0
711	4	2	0.875	-10	0
712	4	2	0.975	-10	0
713	4	2	1.075	-10	0
714	4	2	1.175	-10	0
715	4	2	1.275	-10	0
716	4	2	1.375	-10	0
717	4	2	1.475	-10	0
718	4	2	1.575	-10	0
719	4	2	1.675	-10	0
720	4	2	1.775	-10	0
721	4	2	1.875	-10	0
722	4	2	1.975	-10	0
723	4	2	2.075	-10	0
724	4	2	2.175	-10	0
725	4	2	2.275	-10	0
726	4	2	2.375	-10	0
727	4	2	2.475	-10	0
728	4	2	2.575	-10	0
729	4	2	2.675	-10	0
730	4	2	2.775	-10	0
731	4	2	2.875	-10	0
732	4	2	2.975	-10	0
733	4	2	3.075	-10	0
734	4	2	3.175	-10	0
735	4	2	3.275	-10	0
736	4	2	3.375	-10	0
737	4	2	3.475	-10	0
738	4	2	3.575	-10	0
739	4	2	3.675	-10	0
740	4	2	3.775	-10	0
741	4	2	3.875	-10	0
742	4	2	3.975	-10	0
743	4	2	4.075	-10	0
744	4	2	4.175	-10	0
745	4	2	4.275	-10	0
746	4	2	4.375	-10	0
747	4	2	4.475	-10	0
748	4	2	4.575	-10	0
749	4	2	4.675	-10	0
750	4	2	4.775	-10	0
751	4	2	4.875	-10	0
752	4	2	4.975	-10	0
753	4	2	5.075	-10	0
754	4	2	5.175	-10	0
755	4	2	5.275	-10	0
756	4	2	5.375	-10	0
757	4	2	5.475	-10	0
758	4	2	5.575	-10	0
759	4	2	5.675	-10	0
760	4	2	5.775	-10	0
761	4	2	5.875	-10	0
762	4	2	5.975	-10	0
763	4	2	6.075	-10	0
764	4	2	6.175	-10	0
765	4	2	6.275	-10	0
766	4	2	6.375	-10	0
767	4	2	6.475	-10	0
768	4	2	6.575	-10	0
769	4	2	6.675	-10	0
770	4	2	6.775	-10	0
771	4	2	6.875	-10	0
772	4	2	6.975	-10	0
773	4	2	7.075	-10	0
774	4	2	7.175	-10	0
775	4	2	7.275	-10	0
776	4	2	7.375	-10	0
777	4	2	7.475	-10	0
778	4	2	7.575	-10	0
779	4	2	7.675	-10	0
780	4	2	7.775	-10	0
781	4	2	7.875	-10	0
782	4	2	7.975	-10	0
783	4	2	8.075	-10	0
784	4	2	8.175	-10	0
785	4	2	8.275	-10	0
786	4	2	8.375	-10	0
787	4	2	8.475	-10	0
788	4	2	8.575	-10	0
789	4	2	8.675	-10	0
790	4	2	8.775	-10	0
791	4	2	8.875	-10	0
792	4	2	8.975	-10	0
793	4	2	9.075	-10	0
794	4	2	9.175	-10	0
795	4	2	9.275	-10	0
796	4	2	9.375	-10	0
797	4	2	9.475	-10	0
798	4	2	9.575	-10	0
799	4	2	9.675	-10	0
800	4	2	9.775	-10	0
801	5	1	-9.735	0	0
802	5	1	-9.635	0	0
803	5	1	-9.535	0	0
804	5	1	-9.435	0	0
805	5	1	-9.335	0	0
806	5	1	-9.235	0	0
807	5	1	-9.135	0	0
808	5	1	-9.035	0	0
809	5	1	-8.935	0	0
810	5	1	-8.835	0	0
811	5	1	-8.735	0	0
812	5	1	-8.635	0	0
813	5	1	-8.535	0	0
814	5	1	-8.435	0	0
815	5	1	-8.335	0	0
816	5	1	-8.235	0	0
817	5	1	-8.135	0	0
818	5	1	-8.035	0	0
819	5	1	-7.935	0	0
820	5	1	-7.835	0	0
821	5	1	-7.735	0	0
822	5	1	-7.635	0	0
823	5	1	-7.535	0	0
824	5	1	-7.435	0	0
825	5	1	-7.335	0	0
826	5	1	-7.235	0	0
827	5	1	-7.135	0	0
828	5	1	-7.035	0	0
829	5	1	-6.935	0	0
830	5	1	-6.835	0	0
831	5	1	-6.735	0	0
832	5	1	-6.635	0	0
833	5	1	-6.535	0	0
834	5	1	-6.435	0	0
835	5	1	-6.335	0	0
836	5	1	-6.235	0	0
837	5	1	-6.135	0	0
838	5	1	-6.035	0	0
839	5	1	-5.935	0	0
840	5	1	-5.835	0	0
841	5	1	-5.735	0	0
842	5	1	-5.635	0	0
843	5	1	-5.535	0	0
844	5	1	-5.435	0	0
845	5	1	-5.335	0	0
846	5	1	-5.235	0	0
847	5	1	-5.135	0	0
848	5	1	-5.035	0	0
849	5	1	-4.935	0	0
850	5	1	-4.835	0	0
851	5	1	-4.735	0	0
852	5	1	-4.635	0	0
853	5	1	-4.535	0	0
854	5	1	-4.435	0	0
855	5	1	-4.335	0	0
856	5	1	-4.235	0	0
857	5	1	-4.135	0	0
858	5	1	-4.035	0	0
859	5	1	-3.935	0	0
860	5	1	-3.835	0	0
861	5	1	-3.735	0	0
862	5	1	-3.635	0	0
863	5	1	-3.535	0	0
864	5	1	-3.435	0	0
865	5	1	-3.335	0	0
866	5	1	-3.235	0	0
867	5	1	-3.135	0	0
868	5	1	-3.035	0	0
869	5	1	-2.935	0	0
870	5	1	-2.835	0	0
871	5	1	-2.735	0	0
872	5	1	-2.635	0	0
873	5	1	-2.535	0	0
874	5	1	-2.435	0	0
875	5	1	-2.335	0	0
876	5	1	-2.235	0	0
877	5	1	-2.135	0	0
878	5	1	-2.035	0	0
879	5	1	-1.935	0	0
880	5	1	-1.835	0	0
881	5	1	-1.735	0	0
882	5	1	-1.635	0	0
883	5	1	-1.535	0	0
884	5	1	-1.435	0	0
885	5	1	-1.335	0	0
886	5	1	-1.235	0	0
887	5	1	-1.135	0	0
888	5	1	-1.035	0	0
889	5	1	-0.935	0	0
890	5	1	-0.835	0	0
891	5	1	-0.735	0	0
892	5	1	-0.635	0	0
893	5	1	-0.535	0	0
894	5	1	-0.435	0	0
895	5	1	-0.335	0	0
896	5	1	-0.235	0	0
897	5	1	-0.135	0	0
898	5	1	-0.035	0	0
899	5	1	0.065	0	0
900	5	1	0.165	0	0
901	5	2	0.265	0	0
902	5	2	0.365	0	0
903	5	2	0.465	0	0
904	5	2	0.565	0	0
905	5	2	0.665	0	0
906	5	2	0.765	0	0
907	5	2	0.865	0	0
908	5	2	0.965	0	0
909	5	2	1.065	0	0
910	5	2	1.165	0	0
911	5	2	1.265	0	0
912	5	2	1.365	0	0
913	5	2	1.465	0	0
914	5	2	1.565	0	0
915	5	2	1.665	0	0
916	5	2	1.765	0	0
917	5	2	1.865	0	0
918	5	2	1.965	0	0
919	5	2	2.065	0	0
920	5	2	2.165	0	0
921	5	2	2.265	0	0
922	5	2	2.365	0	0
923	5	2	2.465	0	0
924	5	2	2.565	0	0
925	5	2	2.665	0	0
926	5	2	2.765	0	0
927	5	2	2.865	0	0
928	5	2	2.965	0	0
929	5	2	3.065	0	0
930	5	2	3.165	0	0
931	5	2	3.265	0	0
932	5	2	3.365	0	0
933	5	2	3.465	0	0
934	5	2	3.565	0	0
935	5	2	3.665	0	0
936	5	2	3.765	0	0
937	5	2	3.865	0	0
938	5	2	3.965	0	0
939	5	2	4.065	0	0
940	5	2	4.165	0	0
941	5	2	4.265	0	0
942	5	2	4.365	0	0
943	5	2	4.465	0	0
944	5	2	4.565	0	0
945	5	2	4.665	0	0
946	5	2	4.765	0	0
947	5	2	4.865	0	0
948	5	2	4.965	0	0
949	5	2	5.065	0	0
950	5	2	5.165	0	0
951	5	2	5.265	0	0
952	5	2	5.365	0	0
953	5	2	5.465	0	0
954	5	2	5.565	0	0
955	5	2	5.665	0	0
956	5	2	5.765	0	0
957	5	2	5.865	0	0
958	5	2	5.965	0	0
959	5	2	6.065	0	0
960	5	2	6.165	0	0
961	5	2	6.265	0	0
962	5	2	6.365	0	0
963	5	2	6.465	0	0
964	5	2	6.565	0	0
965	5	2	6.665	0	0
966	5	2	6.765	0	0
967	5	2	6.865	0	0
968	5	2	6.965	0	0
969	5	2	7.065	0	0
970	5	2	7.165	0	0
971	5	2	7.265	0	0
972	5	2	7.365	0	0
973	5	2	7.465	0	0
974	5	2	7.565	0	0
975	5	2	7.665	0	0
976	5	2	7.765	0	0
977	5	2	7.865	0	0
978	5	2	7.965	0	0
979	5	2	8.065	0	0
980	5	2	8.165	0	0
981	5	2	8.265	0	0
982	5	2	8.365	0	0
983	5	2	8.465	0	0
984	5	2	8.565	0	0
985	5	2	8.665	0	0
986	5	2	8.765	0	0
987	5	2	8.865	0	0
988	5	2	8.965	0	0
989	5	2	9.065	0	0
990	5	2	9.165	0	0
991	5	2	9.265	0	0
992	5	2	9.365	0	0
993	5	2	9.465	0	0
994	5	2	9.565	0	0
995	5	2	9.665	0	0
996	5	2	9.765	0	0
997	5	2	9.865	0	0
998	5	2	9.965	0	0
999	5	2	10.065	0	0
1000	5	2	10.165	0	0
1001	6	1	-10.025	10	0
1002	6	1	-9.925	10	0
1003	6	1	-9.825	10	0
1004	6	1	-9.725	10	0
1005	6	1	-9.625	10	0
1006	6	1	-9.525	10	0
1007	6	1	-9.425	10	0
1008	6	1	-9.325	10	0
1009	6	1	-9.225	10	0
1010	6	1	-9.125	10	0
1011	6	1	-9.025	10	0
1012	6	1	-8.925	10	0
1013	6	1	-8.825	10	0
1014	6	1	-8.725	10	0
1015	6	1	-8.625	10	0
1016	6	1	-8.525	10	0
1017	6	1	-8.425	10	0
1018	6	1	-8.325	10	0
1019	6	1	-8.225	10	0
1020	6	1	-8.125	10	0
1021	6	1	-8.025	10	0
1022	6	1	-7.925	10	0
1023	6	1	-7.825	10	0
1024	6	1	-7.725	10	0
1025	6	1	-7.625	10	0
1026	6	1	-7.525	10	0
1027	6	1	-7.425	10	0
1028	6	1	-7.325	10	0
1029	6	1	-7.225	10	0
1030	6	1	-7.125	10	0
1031	6	1	-7.025	10	0
1032	6	1	-6.925	10	0
1033	6	1	-6.825	10	0
1034	6	1	-6.725	10	0
1035	6	1	-6.625	10	0
1036	6	1	-6.525	10	0
1037	6	1	-6.425	10	0
1038	6	1	-6.325	10	0
1039	6	1	-6.225	10	0
1040	6	1	-6.125	10	0
1041	6	1	-6.025	10	0
1042	6	1	-5.925	10	0
1043	6	1	-5.825	10	0
1044	6	1	-5.725	10	0
1045	6	1	-5.625	10	0
1046	6	1	-5.525	10	0
1047	6	1	-5.425	10	0
1048	6	1	-5.325	10	0
1049	6	1	-5.225	10	0
1050	6	1	-5.125	10	0
1051	6	1	-5.025	10	0
1052	6	1	-4.925	10	0
1053	6	1	-4.825	10	0
1054	6	1	-4.725	10	0
1055	6	1	-4.625	10	0
1056	6	1	-4.525	10	0
1057	6	1	-4.425	10	0
1058	6	1	-4.325	10	0
1059	6	1	-4.225	10	0
1060	6	1	-4.125	10	0
1061	6	1	-4.025	10	0
1062	6	1	-3.925	10	0
1063	6	1	-3.825	10	0
1064	6	1	-3.725	10	0
1065	6	1	-3.625	10	0
1066	6	1	-3.525	10	0
1067	6	1	-3.425	10	0
1068	6	1	-3.325	10	0
1069	6	1	-3.225	10	0
1070	6	1	-3.125	10	0
1071	6	1	-3.025	10	0
1072	6	1	-2.925	10	0
1073	6	1	-2.825	10	0
1074	6	1	-2.725	10	0
1075	6	1	-2.625	10	0
1076	6	1	-2.525	10	0
1077	6	1	-2.425	10	0
1078	6	1	-2.325	10	0
1079	6	1	-2.225	10	0
1080	6	1	-2.125	10	0
1081	6	1	-2.025	10	0
1082	6	1	-1.925	10	0
1083	6	1	-1.825	10	0
1084	6	1	-1.725	10	0
1085	6	1	-1.625	10	0
1086	6	1	-1.525	10	0
1087	6	1	-1.425	10	0
1088	6	1	-1.325	10	0
1089	6	1	-1.225	10	0
1090	6	1	-1.125	10	0
1091	6	1	-1.025	10	0
1092	6	1	-0.925	10	0
1093	6	1	-0.825	10	0
1094	6	1	-0.725	10	0
1095	6	1	-0.625	10	0
1096	6	1	-0.525	10	0
1097	6	1	-0.425	10	0
1098	6	1	-0.325	10	0
1099	6	1	-0.225	10	0
1100	6	1	-0.125	10	0
1101	6	2	-0.025	10	0
1102	6	2	0.075	10	0
1103	6	2	0.175	10	0
1104	6	2	0.275	10	0
1105	6	2	0.375	10	0
1106	6	2	0.475	10	0
1107	6	2	0.575	10	0
1108	6	2	0.675	10	0
1109	6	2	0.775	10	0
1110	6	2	0.875	10	0
1111	6	2	0.975	10	0
1112	6	2	1.075	10	0
1113	6	2	1.175	10	0
1114	6	2	1.275	10	0
1115	6	2	1.375	10	0
1116	6	2	1.475	10	0
1117	6	2	1.575	10	0
1118	6	2	1.675	10	0
1119	6	2	1.775	10	0
1120	6	2	1.875	10	0
1121	6	2	1.975	10	0
1122	6	2	2.075	10	0
1123	6	2	2.175	10	0
1124	6	2	2.275	10	0
1125	6	2	2.375	10	0
1126	6	2	2.475	10	0
1127	6	2	2.575	10	0
1128	6	2	2.675	10	0
1129	6	2	2.775	10	0
1130	6	2	2.875	10	0
1131	6	2	2.975	10	0
1132	6	2	3.075	10	0
1133	6	2	3.175	10	0
1134	6	2	3.275	10	0
1135	6	2	3.375	10	0
1136	6	2	3.475	10	0
1137	6	2	3.575	10	0
1138	6	2	3.675	10	0
1139	6	2	3.775	10	0
1140	6	2	3.875	10	0
1141	6	2	3.975	10	0
1142	6	2	4.075	10	0
1143	6	2	4.175	10	0
1144	6	2	4.275	10	0
1145	6	2	4.375	10	0
1146	6	2	4.475	10	0
1147	6	2	4.575	10	0
1148	6	2	4.675	10	0
1149	6	2	4.775	10	0
1150	6	2	4.875	10	0
1151	6	2	4.975	10	0
1152	6	2	5.075	10	0
1153	6	2	5.175	10	0
1154	6	2	5.275	10	0
1155	6	2	5.375	10	0
1156	6	2	5.475	10	0
1157	6	2	5.575	10	0
1158	6	2	5.675	10	0
1159	6	2	5.775	10	0
1160	6	2	5.875	10	0
1161	6	2	5.975	10	0
1162	6	2	6.075	10	0
1163	6	2	6.175	10	0
1164	6	2	6.275	10	0
1165	6	2	6.375	10	0
1166	6	2	6.475	10	0
1167	6	2	6.575	10	0
1168	6	2	6.675	10	0
1169	6	2	6.775	10	0
1170	6	2	6.875	10	0
1171	6	2	6.975	10	0
1172	6	2	7.075	10	0
1173	6	2	7.175	10	0
1174	6	2	7.275	10	0
1175	6	2	7.375	10	0
1176	6	2	7.475	10	0
1177	6	2	7.575	10	0
1178	6	2	7.675	10	0
1179	6	2	7.775	10	0
1180	6	2	7.875	10	0
1181	6	2	7.975	10	0
1182	6	2	8.075	10	0
1183	6	2	8.175	10	0
1184	6	2	8.275	10	0
1185	6	2	8.375	10	0
1186	6	2	8.475	10	0
1187	6	2	8.575	10	0
1188	6	2	8.675	10	0
1189	6	2	8.775	10	0
1190	6	2	8.875	10	0
1191	6	2	8.975	10	0
1192	6	2	9.075	10	0
1193	6	2	9.175	10	0
1194	6	2	9.275	10	0
1195	6	2	9.375	10	0
1196	6	2	9.475	10	0
1197	6	2	9.575	10	0
1198	6	2	9.675	10	0
1199	6	2	9.775	10	0
1200	6	2	9.875	10	0
1201	7	1	-9.77	-10	10
1202	7	1	-9.67	-10	10
1203	7	1	-9.57	-10	10
1204	7	1	-9.47	-10	10
1205	7	1	-9.37	-10	10
1206	7	1	-9.27	-10	10
1207	7	1	-9.17	-10	10
1208	7	1	-9.07	-10	10
1209	7	1	-8.97	-10	10
1210	7	1	-8.87	-10	10
1211	7	1	-8.77	-10	10
1212	7	1	-8.67	-10	10
1213	7	1	-8.57	-10	10
1214	7	1	-8.47	-10	10
1215	7	1	-8.37	-10	10
1216	7	1	-8.27	-10	10
1217	7	1	-8.17	-10	10
1218	7	1	-8.07	-10	10
1219	7	1	-7.97	-10	10
1220	7	1	-7.87	-10	10
1221	7	1	-7.77	-10	10
1222	7	1	-7.67	-10	10
1223	7	1	-7.57	-10	10
1224	7	1	-7.47	-10	10
1225	7	1	-7.37	-10	10
1226	7	1	-7.27	-10	10
1227	7	1	-7.17	-10	10
1228	7	1	-7.07	-10	10
1229	7	1	-6.97	-10	10
1230	7	1	-6.87	-10	10
1231	7	1	-6.77	-10	10
1232	7	1	-6.67	-10	10
1233	7	1	-6.57	-10	10
1234	7	1	-6.47	-10	10
1235	7	1	-6.37	-10	10
1236	7	1	-6.27	-10	10
1237	7	1	-6.17	-10	10
1238	7	1	-6.07	-10	10
1239	7	1	-5.97	-10	10
1240	7	1	-5.87	-10	10
1241	7	1	-5.77	-10	10
1242	7	1	-5.67	-10	10
1243	7	1	-5.57	-10	10
1244	7	1	-5.47	-10	10
1245	7	1	-5.37	-10	10
1246	7	1	-5.27	-10	10
1247	7	1	-5.17	-10	10
1248	7	1	-5.07	-10	10
1249	7	1	-4.97	-10	10
1250	7	1	-4.87	-10	10
1251	7	1	-4.77	-10	10
1252	7	1	-4.67	-10	10
1253	7	1	-4.57	-10	10
1254	7	1	-4.47	-10	10
1255	7	1	-4.37	-10	10
1256	7	1	-4.27	-10	10
1257	7	1	-4.17	-10	10
1258	7	1	-4.07	-10	10
1259	7	1	-3.97	-10	10
1260	7	1	-3.87	-10	10
1261	7	1	-3.77	-10	10
1262	7	1	-3.67	-10	10
1263	7	1	-3.57	-10	10
1264	7	1	-3.47	-10	10
1265	7	1	-3.37	-10	10
1266	7	1	-3.27	-10	10
1267	7	1	-3.17	-10	10
1268	7	1	-3.07	-10	10
1269	7	1	-2.97	-10	10
1270	7	1	-2.87	-10	10
1271	7	1	-2.77	-10	10
1272	7	1	-2.67	-10	10
1273	7	1	-2.57	-10	10
1274	7	1	-2.47	-10	10
1275	7	1	-2.37	-10	10
1276	7	1	-2.27	-10	10
1277	7	1	-2.17	-10	10
1278	7	1	-2.07	-10	10
1279	7	1	-1.97	-10	10
1280	7	1	-1.87	-10	10
1281	7	1	-1.77	-10	10
1282	7	1	-1.67	-10	10
1283	7	1	-1.57	-10	10
1284	7	1	-1.47	-10	10
1285	7	1	-1.37	-10	10
1286	7	1	-1.27	-10	10
1287	7	1	-1.17	-10	10
1288	7	1	-1.07	-10	10
1289	7	1	-0.97	-10	10
1290	7	1	-0.87	-10	10
1291	7	1	-0.77	-10	10
1292	7	1	-0.67	-10	10
1293	7	1	-0.57	-10	10
1294	7	1	-0.47	-10	10
1295	7	1	-0.37	-10	10
1296	7	1	-0.27	-10	10
1297	7	1	-0.17	-10	10
1298	7	1	-0.07	-10	10
1299	7	1	0.03	-10	10
1300	7	1	0.13	-10	10
1301	7	2	0.23	-10	10
1302	7	2	0.33	-10	10
1303	7	2	0.43	-10	10
1304	7	2	0.53	-10	10
1305	7	2	0.63	-10	10
1306	7	2	0.73	-10	10
1307	7	2	0.83	-10	10
1308	7	2	0.93	-10	10
1309	7	2	1.03	-10	10
1310	7	2	1.13	-10	10
1311	7	2	1.23	-10	10
1312	7	2	1.33	-10	10
1313	7	2	1.43	-10	10
1314	7	2	1.53	-10	10
1315	7	2	1.63	-10	10
1316	7	2	1.73	-10	10
1317	7	2	1.83	-10	10
1318	7	2	1.93	-10	10
1319	7	2	2.03	-10	10
1320	7	2	2.13	-10	10
1321	7	2	2.23	-10	10
1322	7	2	2.33	-10	10
1323	7	2	2.43	-10	10
1324	7	2	2.53	-10	10
1325	7	2	2.63	-10	10
1326	7	2	2.73	-10	10
1327	7	2	2.83	-10	10
1328	7	2	2.93	-10	10
1329	7	2	3.03	-10	10
1330	7	2	3.13	-10	10
1331	7	2	3.23	-10	10
1332	7	2	3.33	-10	10
1333	7	2	3.43	-10	10
1334	7	2	3.53	-10	10
1335	7	2	3.63	-10	10
1336	7	2	3.73	-10	10
1337	7	2	3.83	-10	10
1338	7	2	3.93	-10	10
1339	7	2	4.03	-10	10
1340	7	2	4.13	-10	10
1341	7	2	4.23	-10	10
1342	7	2	4.33	-10	10
1343	7	2	4.43	-10	10
1344	7	2	4.53	-10	10
1345	7	2	4.63	-10	10
1346	7	2	4.73	-10	10
1347	7	2	4.83	-10	10
1348	7	2	4.93	-10	10
1349	7	2	5.03	-10	10
1350	7	2	5.13	-10	10
1351	7	2	5.23	-10	10
1352	7	2	5.33	-10	10
1353	7	2	5.43	-10	10
1354	7	2	5.53	-10	10
1355	7	2	5.63	-10	10
1356	7	2	5.73	-10	10
1357	7	2	5.83	-10	10
1358	7	2	5.93	-10	10
1359	7	2	6.03	-10	10
1360	7	2	6.13	-10	10
1361	7	2	6.23	-10	10
1362	7	2	6.33	-10	10
1363	7	2	6.43	-10	10
1364	7	2	6.53	-10	10
1365	7	2	6.63	-10	10
1366	7	2	6.73	-10	10
1367	7	2	6.83	-10	10
1368	7	2	6.93	-10	10
1369	7	2	7.03	-10	10
1370	7	2	7.13	-10	10
1371	7	2	7.23	-10	10
1372	7	2	7.33	-10	10
1373	7	2	7.43	-10	10
1374	7	2	7.53	-10	10
1375	7	2	7.63	-10	10
1376	7	2	7.73	-10	10
1377	7	2	7.83	-10	10
1378	7	2	7.93	-10	10
1379	7	2	8.03	-10	10
1380	7	2	8.13	-10	10
1381	7	2	8.23	-10	10
1382	7	2	8.33	-10	10
1383	7	2	8.43	-10	10
1384	7	2	8.53	-10	10
1385	7	2	8.63	-10	10
1386	7	2	8.73	-10	10
1387	7	2	8.83	-10	10
1388	7	2	8.93	-10	10
1389	7	2	9.03	-10	10
1390	7	2	9.13	-10	10
1391	7	2	9.23	-10	10
1392	7	2	9.33	-10	10
1393	7	2	9.43	-10	10
1394	7	2	9.53	-10	10
1395	7	2	9.63	-10	10
1396	7	2	9.73	-10	10
1397	7	2	9.83	-10	10
1398	7	2	9.93	-10	10
1399	7	2	10.03	-10	10
1400	7	2	10.13	-10	10
1401	8	1	-9.74	0	10
1402	8	1	-9.64	0	10
1403	8	1	-9.54	0	10
1404	8	1	-9.44	0	10
1405	8	1	-9.34	0	10
1406	8	1	-9.24	0	10
1407	8	1	-9.14	0	10
1408	8	1	-9.04	0	10
1409	8	1	-8.94	0	10
1410	8	1	-8.84	0	10
1411	8	1	-8.74	0	10
1412	8	1	-8.64	0	10
1413	8	1	-8.54	0	10
1414	8	1	-8.44	0	10
1415	8	1	-8.34	0	10
1416	8	1	-8.24	0	10
1417	8	1	-8.14	0	10
1418	8	1	-8.04	0	10
1419	8	1	-7.94	0	10
1420	8	1	-7.84	0	10
1421	8	1	-7.74	0	10
1422	8	1	-7.64	0	10
1423	8	1	-7.54	0	10
1424	8	1	-7.44	0	10
1425	8	1	-7.34	0	10
1426	8	1	-7.24	0	10
1427	8	1	-7.14	0	10
1428	8	1	-7.04	0	10
1429	8	1	-6.94	0	10
1430	8	1	-6.84	0	10
1431	8	1	-6.74	0	10
1432	8	1	-6.64	0	10
1433	8	1	-6.54	0	10
1434	8	1	-6.44	0	10
1435	8	1	-6.34	0	10
1436	8	1	-6.24	0	10
1437	8	1	-6.14	0	10
1438	8	1	-6.04	0	10
1439	8	1	-5.94	0	10
1440	8	1	-5.84	0	10
1441	8	1	-5.74	0	10
1442	8	1	-5.64	0	10
1443	8	1	-5.54	0	10
1444	8	1	-5.44	0	10
1445	8	1	-5.34	0	10